 variables= "x","y","fpcb"
 zone i=          10  datapacking=point
  0.585073936015098       0.407523408098434       0.000000000000000E+000
  0.523329783697555       0.315325112839540       0.000000000000000E+000
  0.339361781191526       0.478576694671911       0.000000000000000E+000
  0.519143685467897       0.297912536467346       0.000000000000000E+000
  0.483608858231388       0.475405618360082       0.000000000000000E+000
  0.429767489319349       0.551632987364844       0.000000000000000E+000
  0.377880190143320       0.435023838182167       0.000000000000000E+000
  0.558042919205527       0.365053527922165       0.000000000000000E+000
  0.443030267865619       0.344048979229078       0.000000000000000E+000
  0.355399202454173       0.510599102495988       0.000000000000000E+000
